input_solute,input_solvent,input_reference_solvent,solute,solvent,reference_solubility,stdev_logs_aq_298 [log10(mol/l)],reference_solvent,temperature,dG_solv_298 [kcal/mol],stdev_dG_solv_298 [kcal/mol],dG_solv_aq_298 [kcal/mol],stdev_dG_solv_aq_298 [kcal/mol],dG_solv_ref_298 [kcal/mol],stdev_dG_solv_ref_298 [kcal/mol],logS_aq_298 [log10(mol/L)],stdev_logS_aq_298 [log10(mol/L)],logS_298_from_aq [log10(mol/L)],stdev_logS_298_from_aq [log10(mol/L)],logS_298_from_ref [log10(mol/L)],stdev_logS_298_from_ref [log10(mol/L)],logK_298 [log10(-)],stdev_logK_298 [log10(-)],logK_aq_298 [log10(-)],stdev_logK_aq_298 [log10(-)],logK_ref_298 [log10(-)],stdev_logK_ref_298 [log10(-)]
C=C[C@H]1C[N@@]2CC[C@H]1C[C@H]2[C@H](O)c1ccnc2ccc(OC)cc12,Cc1ccccc1,O,C=C[C@H]1C[N@@]2CC[C@H]1C[C@H]2[C@H](O)c1ccnc2ccc(OC)cc12,Cc1ccccc1,-2.936359921,0.16117968198874275,O,298,-19.99567681,0.5565846664155079,-17.38938934,0.6208475575609725,-17.38938934,0.6208475575609725,-2.936359921,0.16117968198874275,-1.025214342,0.6323060419930516,-1.025214342,0.6114180573510456,14.662484375890871,0.40813392072697446,12.751338796670465,0.4552567886445563,12.751338796670465,0.4552567886445563
O=[N+]([O-])/C=C/c1ccccc1,Cc1ccccc1,O,O=[N+]([O-])/C=C/c1ccccc1,Cc1ccccc1,-2.185854509,0.21706009140827695,O,298,-9.692018511,0.39371900627988055,-6.129330405,0.6880576325231782,-6.129330405,0.6880576325231782,-2.185854509,0.21706009140827698,0.4266031323395092,0.6205065744429609,0.4266031323395092,0.5813031271589446,7.1069897417444645,0.28870734569927187,4.494532100092704,0.5045407755415308,4.494532100092704,0.5045407755415308
COC(=O)C(C(=O)OC)C(C[N+](=O)[O-])c1ccccc1,Cc1ccccc1,O,COC(=O)C(C(=O)OC)C(C[N+](=O)[O-])c1ccccc1,Cc1ccccc1,-2.467025741,0.3530725970430649,O,298,-14.597152,1.0223767645479103,-10.81420198,0.9939365163679372,-10.81420198,0.9939365163679372,-2.467025741,0.35307259704306493,0.3069461602767136,1.1035849734470746,0.3069461602767136,1.0455809556583582,10.703839392393606,0.7496912195989153,7.929867490978462,0.7288364769217692,7.929867490978462,0.7288364769217692